 # Bcc W oriented X=[100] Y=[010] Z=[001].
 
         250  atoms
           1  atom types
 
      0.000000000000      15.775000000000  xlo xhi
      0.000000000000      15.775000000000  ylo yhi
      0.000000000000      15.775000000000  zlo zhi
 
Masses
 
            1   183.84000000            # W
 
Atoms # atomic
 
         1    1        0.000000000000       0.000000000000       0.000000000000
         2    1        1.577500000000       1.577500000000       1.577500000000
         3    1        3.155000000000       0.000000000000       0.000000000000
         4    1        4.732500000000       1.577500000000       1.577500000000
         5    1        6.310000000000       0.000000000000       0.000000000000
         6    1        7.887500000000       1.577500000000       1.577500000000
         7    1        9.465000000000       0.000000000000       0.000000000000
         8    1       11.042500000000       1.577500000000       1.577500000000
         9    1       12.620000000000       0.000000000000       0.000000000000
        10    1       14.197500000000       1.577500000000       1.577500000000
        11    1        0.000000000000       3.155000000000       0.000000000000
        12    1        1.577500000000       4.732500000000       1.577500000000
        13    1        3.155000000000       3.155000000000       0.000000000000
        14    1        4.732500000000       4.732500000000       1.577500000000
        15    1        6.310000000000       3.155000000000       0.000000000000
        16    1        7.887500000000       4.732500000000       1.577500000000
        17    1        9.465000000000       3.155000000000       0.000000000000
        18    1       11.042500000000       4.732500000000       1.577500000000
        19    1       12.620000000000       3.155000000000       0.000000000000
        20    1       14.197500000000       4.732500000000       1.577500000000
        21    1        0.000000000000       6.310000000000       0.000000000000
        22    1        1.577500000000       7.887500000000       1.577500000000
        23    1        3.155000000000       6.310000000000       0.000000000000
        24    1        4.732500000000       7.887500000000       1.577500000000
        25    1        6.310000000000       6.310000000000       0.000000000000
        26    1        7.887500000000       7.887500000000       1.577500000000
        27    1        9.465000000000       6.310000000000       0.000000000000
        28    1       11.042500000000       7.887500000000       1.577500000000
        29    1       12.620000000000       6.310000000000       0.000000000000
        30    1       14.197500000000       7.887500000000       1.577500000000
        31    1        0.000000000000       9.465000000000       0.000000000000
        32    1        1.577500000000      11.042500000000       1.577500000000
        33    1        3.155000000000       9.465000000000       0.000000000000
        34    1        4.732500000000      11.042500000000       1.577500000000
        35    1        6.310000000000       9.465000000000       0.000000000000
        36    1        7.887500000000      11.042500000000       1.577500000000
        37    1        9.465000000000       9.465000000000       0.000000000000
        38    1       11.042500000000      11.042500000000       1.577500000000
        39    1       12.620000000000       9.465000000000       0.000000000000
        40    1       14.197500000000      11.042500000000       1.577500000000
        41    1        0.000000000000      12.620000000000       0.000000000000
        42    1        1.577500000000      14.197500000000       1.577500000000
        43    1        3.155000000000      12.620000000000       0.000000000000
        44    1        4.732500000000      14.197500000000       1.577500000000
        45    1        6.310000000000      12.620000000000       0.000000000000
        46    1        7.887500000000      14.197500000000       1.577500000000
        47    1        9.465000000000      12.620000000000       0.000000000000
        48    1       11.042500000000      14.197500000000       1.577500000000
        49    1       12.620000000000      12.620000000000       0.000000000000
        50    1       14.197500000000      14.197500000000       1.577500000000
        51    1        0.000000000000       0.000000000000       3.155000000000
        52    1        1.577500000000       1.577500000000       4.732500000000
        53    1        3.155000000000       0.000000000000       3.155000000000
        54    1        4.732500000000       1.577500000000       4.732500000000
        55    1        6.310000000000       0.000000000000       3.155000000000
        56    1        7.887500000000       1.577500000000       4.732500000000
        57    1        9.465000000000       0.000000000000       3.155000000000
        58    1       11.042500000000       1.577500000000       4.732500000000
        59    1       12.620000000000       0.000000000000       3.155000000000
        60    1       14.197500000000       1.577500000000       4.732500000000
        61    1        0.000000000000       3.155000000000       3.155000000000
        62    1        1.577500000000       4.732500000000       4.732500000000
        63    1        3.155000000000       3.155000000000       3.155000000000
        64    1        4.732500000000       4.732500000000       4.732500000000
        65    1        6.310000000000       3.155000000000       3.155000000000
        66    1        7.887500000000       4.732500000000       4.732500000000
        67    1        9.465000000000       3.155000000000       3.155000000000
        68    1       11.042500000000       4.732500000000       4.732500000000
        69    1       12.620000000000       3.155000000000       3.155000000000
        70    1       14.197500000000       4.732500000000       4.732500000000
        71    1        0.000000000000       6.310000000000       3.155000000000
        72    1        1.577500000000       7.887500000000       4.732500000000
        73    1        3.155000000000       6.310000000000       3.155000000000
        74    1        4.732500000000       7.887500000000       4.732500000000
        75    1        6.310000000000       6.310000000000       3.155000000000
        76    1        7.887500000000       7.887500000000       4.732500000000
        77    1        9.465000000000       6.310000000000       3.155000000000
        78    1       11.042500000000       7.887500000000       4.732500000000
        79    1       12.620000000000       6.310000000000       3.155000000000
        80    1       14.197500000000       7.887500000000       4.732500000000
        81    1        0.000000000000       9.465000000000       3.155000000000
        82    1        1.577500000000      11.042500000000       4.732500000000
        83    1        3.155000000000       9.465000000000       3.155000000000
        84    1        4.732500000000      11.042500000000       4.732500000000
        85    1        6.310000000000       9.465000000000       3.155000000000
        86    1        7.887500000000      11.042500000000       4.732500000000
        87    1        9.465000000000       9.465000000000       3.155000000000
        88    1       11.042500000000      11.042500000000       4.732500000000
        89    1       12.620000000000       9.465000000000       3.155000000000
        90    1       14.197500000000      11.042500000000       4.732500000000
        91    1        0.000000000000      12.620000000000       3.155000000000
        92    1        1.577500000000      14.197500000000       4.732500000000
        93    1        3.155000000000      12.620000000000       3.155000000000
        94    1        4.732500000000      14.197500000000       4.732500000000
        95    1        6.310000000000      12.620000000000       3.155000000000
        96    1        7.887500000000      14.197500000000       4.732500000000
        97    1        9.465000000000      12.620000000000       3.155000000000
        98    1       11.042500000000      14.197500000000       4.732500000000
        99    1       12.620000000000      12.620000000000       3.155000000000
       100    1       14.197500000000      14.197500000000       4.732500000000
       101    1        0.000000000000       0.000000000000       6.310000000000
       102    1        1.577500000000       1.577500000000       7.887500000000
       103    1        3.155000000000       0.000000000000       6.310000000000
       104    1        4.732500000000       1.577500000000       7.887500000000
       105    1        6.310000000000       0.000000000000       6.310000000000
       106    1        7.887500000000       1.577500000000       7.887500000000
       107    1        9.465000000000       0.000000000000       6.310000000000
       108    1       11.042500000000       1.577500000000       7.887500000000
       109    1       12.620000000000       0.000000000000       6.310000000000
       110    1       14.197500000000       1.577500000000       7.887500000000
       111    1        0.000000000000       3.155000000000       6.310000000000
       112    1        1.577500000000       4.732500000000       7.887500000000
       113    1        3.155000000000       3.155000000000       6.310000000000
       114    1        4.732500000000       4.732500000000       7.887500000000
       115    1        6.310000000000       3.155000000000       6.310000000000
       116    1        7.887500000000       4.732500000000       7.887500000000
       117    1        9.465000000000       3.155000000000       6.310000000000
       118    1       11.042500000000       4.732500000000       7.887500000000
       119    1       12.620000000000       3.155000000000       6.310000000000
       120    1       14.197500000000       4.732500000000       7.887500000000
       121    1        0.000000000000       6.310000000000       6.310000000000
       122    1        1.577500000000       7.887500000000       7.887500000000
       123    1        3.155000000000       6.310000000000       6.310000000000
       124    1        4.732500000000       7.887500000000       7.887500000000
       125    1        6.310000000000       6.310000000000       6.310000000000
       126    1        7.887500000000       7.887500000000       7.887500000000
       127    1        9.465000000000       6.310000000000       6.310000000000
       128    1       11.042500000000       7.887500000000       7.887500000000
       129    1       12.620000000000       6.310000000000       6.310000000000
       130    1       14.197500000000       7.887500000000       7.887500000000
       131    1        0.000000000000       9.465000000000       6.310000000000
       132    1        1.577500000000      11.042500000000       7.887500000000
       133    1        3.155000000000       9.465000000000       6.310000000000
       134    1        4.732500000000      11.042500000000       7.887500000000
       135    1        6.310000000000       9.465000000000       6.310000000000
       136    1        7.887500000000      11.042500000000       7.887500000000
       137    1        9.465000000000       9.465000000000       6.310000000000
       138    1       11.042500000000      11.042500000000       7.887500000000
       139    1       12.620000000000       9.465000000000       6.310000000000
       140    1       14.197500000000      11.042500000000       7.887500000000
       141    1        0.000000000000      12.620000000000       6.310000000000
       142    1        1.577500000000      14.197500000000       7.887500000000
       143    1        3.155000000000      12.620000000000       6.310000000000
       144    1        4.732500000000      14.197500000000       7.887500000000
       145    1        6.310000000000      12.620000000000       6.310000000000
       146    1        7.887500000000      14.197500000000       7.887500000000
       147    1        9.465000000000      12.620000000000       6.310000000000
       148    1       11.042500000000      14.197500000000       7.887500000000
       149    1       12.620000000000      12.620000000000       6.310000000000
       150    1       14.197500000000      14.197500000000       7.887500000000
       151    1        0.000000000000       0.000000000000       9.465000000000
       152    1        1.577500000000       1.577500000000      11.042500000000
       153    1        3.155000000000       0.000000000000       9.465000000000
       154    1        4.732500000000       1.577500000000      11.042500000000
       155    1        6.310000000000       0.000000000000       9.465000000000
       156    1        7.887500000000       1.577500000000      11.042500000000
       157    1        9.465000000000       0.000000000000       9.465000000000
       158    1       11.042500000000       1.577500000000      11.042500000000
       159    1       12.620000000000       0.000000000000       9.465000000000
       160    1       14.197500000000       1.577500000000      11.042500000000
       161    1        0.000000000000       3.155000000000       9.465000000000
       162    1        1.577500000000       4.732500000000      11.042500000000
       163    1        3.155000000000       3.155000000000       9.465000000000
       164    1        4.732500000000       4.732500000000      11.042500000000
       165    1        6.310000000000       3.155000000000       9.465000000000
       166    1        7.887500000000       4.732500000000      11.042500000000
       167    1        9.465000000000       3.155000000000       9.465000000000
       168    1       11.042500000000       4.732500000000      11.042500000000
       169    1       12.620000000000       3.155000000000       9.465000000000
       170    1       14.197500000000       4.732500000000      11.042500000000
       171    1        0.000000000000       6.310000000000       9.465000000000
       172    1        1.577500000000       7.887500000000      11.042500000000
       173    1        3.155000000000       6.310000000000       9.465000000000
       174    1        4.732500000000       7.887500000000      11.042500000000
       175    1        6.310000000000       6.310000000000       9.465000000000
       176    1        7.887500000000       7.887500000000      11.042500000000
       177    1        9.465000000000       6.310000000000       9.465000000000
       178    1       11.042500000000       7.887500000000      11.042500000000
       179    1       12.620000000000       6.310000000000       9.465000000000
       180    1       14.197500000000       7.887500000000      11.042500000000
       181    1        0.000000000000       9.465000000000       9.465000000000
       182    1        1.577500000000      11.042500000000      11.042500000000
       183    1        3.155000000000       9.465000000000       9.465000000000
       184    1        4.732500000000      11.042500000000      11.042500000000
       185    1        6.310000000000       9.465000000000       9.465000000000
       186    1        7.887500000000      11.042500000000      11.042500000000
       187    1        9.465000000000       9.465000000000       9.465000000000
       188    1       11.042500000000      11.042500000000      11.042500000000
       189    1       12.620000000000       9.465000000000       9.465000000000
       190    1       14.197500000000      11.042500000000      11.042500000000
       191    1        0.000000000000      12.620000000000       9.465000000000
       192    1        1.577500000000      14.197500000000      11.042500000000
       193    1        3.155000000000      12.620000000000       9.465000000000
       194    1        4.732500000000      14.197500000000      11.042500000000
       195    1        6.310000000000      12.620000000000       9.465000000000
       196    1        7.887500000000      14.197500000000      11.042500000000
       197    1        9.465000000000      12.620000000000       9.465000000000
       198    1       11.042500000000      14.197500000000      11.042500000000
       199    1       12.620000000000      12.620000000000       9.465000000000
       200    1       14.197500000000      14.197500000000      11.042500000000
       201    1        0.000000000000       0.000000000000      12.620000000000
       202    1        1.577500000000       1.577500000000      14.197500000000
       203    1        3.155000000000       0.000000000000      12.620000000000
       204    1        4.732500000000       1.577500000000      14.197500000000
       205    1        6.310000000000       0.000000000000      12.620000000000
       206    1        7.887500000000       1.577500000000      14.197500000000
       207    1        9.465000000000       0.000000000000      12.620000000000
       208    1       11.042500000000       1.577500000000      14.197500000000
       209    1       12.620000000000       0.000000000000      12.620000000000
       210    1       14.197500000000       1.577500000000      14.197500000000
       211    1        0.000000000000       3.155000000000      12.620000000000
       212    1        1.577500000000       4.732500000000      14.197500000000
       213    1        3.155000000000       3.155000000000      12.620000000000
       214    1        4.732500000000       4.732500000000      14.197500000000
       215    1        6.310000000000       3.155000000000      12.620000000000
       216    1        7.887500000000       4.732500000000      14.197500000000
       217    1        9.465000000000       3.155000000000      12.620000000000
       218    1       11.042500000000       4.732500000000      14.197500000000
       219    1       12.620000000000       3.155000000000      12.620000000000
       220    1       14.197500000000       4.732500000000      14.197500000000
       221    1        0.000000000000       6.310000000000      12.620000000000
       222    1        1.577500000000       7.887500000000      14.197500000000
       223    1        3.155000000000       6.310000000000      12.620000000000
       224    1        4.732500000000       7.887500000000      14.197500000000
       225    1        6.310000000000       6.310000000000      12.620000000000
       226    1        7.887500000000       7.887500000000      14.197500000000
       227    1        9.465000000000       6.310000000000      12.620000000000
       228    1       11.042500000000       7.887500000000      14.197500000000
       229    1       12.620000000000       6.310000000000      12.620000000000
       230    1       14.197500000000       7.887500000000      14.197500000000
       231    1        0.000000000000       9.465000000000      12.620000000000
       232    1        1.577500000000      11.042500000000      14.197500000000
       233    1        3.155000000000       9.465000000000      12.620000000000
       234    1        4.732500000000      11.042500000000      14.197500000000
       235    1        6.310000000000       9.465000000000      12.620000000000
       236    1        7.887500000000      11.042500000000      14.197500000000
       237    1        9.465000000000       9.465000000000      12.620000000000
       238    1       11.042500000000      11.042500000000      14.197500000000
       239    1       12.620000000000       9.465000000000      12.620000000000
       240    1       14.197500000000      11.042500000000      14.197500000000
       241    1        0.000000000000      12.620000000000      12.620000000000
       242    1        1.577500000000      14.197500000000      14.197500000000
       243    1        3.155000000000      12.620000000000      12.620000000000
       244    1        4.732500000000      14.197500000000      14.197500000000
       245    1        6.310000000000      12.620000000000      12.620000000000
       246    1        7.887500000000      14.197500000000      14.197500000000
       247    1        9.465000000000      12.620000000000      12.620000000000
       248    1       11.042500000000      14.197500000000      14.197500000000
       249    1       12.620000000000      12.620000000000      12.620000000000
       250    1       14.197500000000      14.197500000000      14.197500000000
