 # Fcc W oriented X=[100] Y=[010] Z=[001].
 
         500  atoms
           1  atom types
 
      0.000000000000      15.775000000000  xlo xhi
      0.000000000000      15.775000000000  ylo yhi
      0.000000000000      15.775000000000  zlo zhi
 
Masses
 
            1   183.84000000            # W
 
Atoms # atomic
 
         1    1        0.000000000000       0.000000000000       0.000000000000
         2    1        1.577500000000       1.577500000000       0.000000000000
         3    1        0.000000000000       1.577500000000       1.577500000000
         4    1        1.577500000000       0.000000000000       1.577500000000
         5    1        3.155000000000       0.000000000000       0.000000000000
         6    1        4.732500000000       1.577500000000       0.000000000000
         7    1        3.155000000000       1.577500000000       1.577500000000
         8    1        4.732500000000       0.000000000000       1.577500000000
         9    1        6.310000000000       0.000000000000       0.000000000000
        10    1        7.887500000000       1.577500000000       0.000000000000
        11    1        6.310000000000       1.577500000000       1.577500000000
        12    1        7.887500000000       0.000000000000       1.577500000000
        13    1        9.465000000000       0.000000000000       0.000000000000
        14    1       11.042500000000       1.577500000000       0.000000000000
        15    1        9.465000000000       1.577500000000       1.577500000000
        16    1       11.042500000000       0.000000000000       1.577500000000
        17    1       12.620000000000       0.000000000000       0.000000000000
        18    1       14.197500000000       1.577500000000       0.000000000000
        19    1       12.620000000000       1.577500000000       1.577500000000
        20    1       14.197500000000       0.000000000000       1.577500000000
        21    1        0.000000000000       3.155000000000       0.000000000000
        22    1        1.577500000000       4.732500000000       0.000000000000
        23    1        0.000000000000       4.732500000000       1.577500000000
        24    1        1.577500000000       3.155000000000       1.577500000000
        25    1        3.155000000000       3.155000000000       0.000000000000
        26    1        4.732500000000       4.732500000000       0.000000000000
        27    1        3.155000000000       4.732500000000       1.577500000000
        28    1        4.732500000000       3.155000000000       1.577500000000
        29    1        6.310000000000       3.155000000000       0.000000000000
        30    1        7.887500000000       4.732500000000       0.000000000000
        31    1        6.310000000000       4.732500000000       1.577500000000
        32    1        7.887500000000       3.155000000000       1.577500000000
        33    1        9.465000000000       3.155000000000       0.000000000000
        34    1       11.042500000000       4.732500000000       0.000000000000
        35    1        9.465000000000       4.732500000000       1.577500000000
        36    1       11.042500000000       3.155000000000       1.577500000000
        37    1       12.620000000000       3.155000000000       0.000000000000
        38    1       14.197500000000       4.732500000000       0.000000000000
        39    1       12.620000000000       4.732500000000       1.577500000000
        40    1       14.197500000000       3.155000000000       1.577500000000
        41    1        0.000000000000       6.310000000000       0.000000000000
        42    1        1.577500000000       7.887500000000       0.000000000000
        43    1        0.000000000000       7.887500000000       1.577500000000
        44    1        1.577500000000       6.310000000000       1.577500000000
        45    1        3.155000000000       6.310000000000       0.000000000000
        46    1        4.732500000000       7.887500000000       0.000000000000
        47    1        3.155000000000       7.887500000000       1.577500000000
        48    1        4.732500000000       6.310000000000       1.577500000000
        49    1        6.310000000000       6.310000000000       0.000000000000
        50    1        7.887500000000       7.887500000000       0.000000000000
        51    1        6.310000000000       7.887500000000       1.577500000000
        52    1        7.887500000000       6.310000000000       1.577500000000
        53    1        9.465000000000       6.310000000000       0.000000000000
        54    1       11.042500000000       7.887500000000       0.000000000000
        55    1        9.465000000000       7.887500000000       1.577500000000
        56    1       11.042500000000       6.310000000000       1.577500000000
        57    1       12.620000000000       6.310000000000       0.000000000000
        58    1       14.197500000000       7.887500000000       0.000000000000
        59    1       12.620000000000       7.887500000000       1.577500000000
        60    1       14.197500000000       6.310000000000       1.577500000000
        61    1        0.000000000000       9.465000000000       0.000000000000
        62    1        1.577500000000      11.042500000000       0.000000000000
        63    1        0.000000000000      11.042500000000       1.577500000000
        64    1        1.577500000000       9.465000000000       1.577500000000
        65    1        3.155000000000       9.465000000000       0.000000000000
        66    1        4.732500000000      11.042500000000       0.000000000000
        67    1        3.155000000000      11.042500000000       1.577500000000
        68    1        4.732500000000       9.465000000000       1.577500000000
        69    1        6.310000000000       9.465000000000       0.000000000000
        70    1        7.887500000000      11.042500000000       0.000000000000
        71    1        6.310000000000      11.042500000000       1.577500000000
        72    1        7.887500000000       9.465000000000       1.577500000000
        73    1        9.465000000000       9.465000000000       0.000000000000
        74    1       11.042500000000      11.042500000000       0.000000000000
        75    1        9.465000000000      11.042500000000       1.577500000000
        76    1       11.042500000000       9.465000000000       1.577500000000
        77    1       12.620000000000       9.465000000000       0.000000000000
        78    1       14.197500000000      11.042500000000       0.000000000000
        79    1       12.620000000000      11.042500000000       1.577500000000
        80    1       14.197500000000       9.465000000000       1.577500000000
        81    1        0.000000000000      12.620000000000       0.000000000000
        82    1        1.577500000000      14.197500000000       0.000000000000
        83    1        0.000000000000      14.197500000000       1.577500000000
        84    1        1.577500000000      12.620000000000       1.577500000000
        85    1        3.155000000000      12.620000000000       0.000000000000
        86    1        4.732500000000      14.197500000000       0.000000000000
        87    1        3.155000000000      14.197500000000       1.577500000000
        88    1        4.732500000000      12.620000000000       1.577500000000
        89    1        6.310000000000      12.620000000000       0.000000000000
        90    1        7.887500000000      14.197500000000       0.000000000000
        91    1        6.310000000000      14.197500000000       1.577500000000
        92    1        7.887500000000      12.620000000000       1.577500000000
        93    1        9.465000000000      12.620000000000       0.000000000000
        94    1       11.042500000000      14.197500000000       0.000000000000
        95    1        9.465000000000      14.197500000000       1.577500000000
        96    1       11.042500000000      12.620000000000       1.577500000000
        97    1       12.620000000000      12.620000000000       0.000000000000
        98    1       14.197500000000      14.197500000000       0.000000000000
        99    1       12.620000000000      14.197500000000       1.577500000000
       100    1       14.197500000000      12.620000000000       1.577500000000
       101    1        0.000000000000       0.000000000000       3.155000000000
       102    1        1.577500000000       1.577500000000       3.155000000000
       103    1        0.000000000000       1.577500000000       4.732500000000
       104    1        1.577500000000       0.000000000000       4.732500000000
       105    1        3.155000000000       0.000000000000       3.155000000000
       106    1        4.732500000000       1.577500000000       3.155000000000
       107    1        3.155000000000       1.577500000000       4.732500000000
       108    1        4.732500000000       0.000000000000       4.732500000000
       109    1        6.310000000000       0.000000000000       3.155000000000
       110    1        7.887500000000       1.577500000000       3.155000000000
       111    1        6.310000000000       1.577500000000       4.732500000000
       112    1        7.887500000000       0.000000000000       4.732500000000
       113    1        9.465000000000       0.000000000000       3.155000000000
       114    1       11.042500000000       1.577500000000       3.155000000000
       115    1        9.465000000000       1.577500000000       4.732500000000
       116    1       11.042500000000       0.000000000000       4.732500000000
       117    1       12.620000000000       0.000000000000       3.155000000000
       118    1       14.197500000000       1.577500000000       3.155000000000
       119    1       12.620000000000       1.577500000000       4.732500000000
       120    1       14.197500000000       0.000000000000       4.732500000000
       121    1        0.000000000000       3.155000000000       3.155000000000
       122    1        1.577500000000       4.732500000000       3.155000000000
       123    1        0.000000000000       4.732500000000       4.732500000000
       124    1        1.577500000000       3.155000000000       4.732500000000
       125    1        3.155000000000       3.155000000000       3.155000000000
       126    1        4.732500000000       4.732500000000       3.155000000000
       127    1        3.155000000000       4.732500000000       4.732500000000
       128    1        4.732500000000       3.155000000000       4.732500000000
       129    1        6.310000000000       3.155000000000       3.155000000000
       130    1        7.887500000000       4.732500000000       3.155000000000
       131    1        6.310000000000       4.732500000000       4.732500000000
       132    1        7.887500000000       3.155000000000       4.732500000000
       133    1        9.465000000000       3.155000000000       3.155000000000
       134    1       11.042500000000       4.732500000000       3.155000000000
       135    1        9.465000000000       4.732500000000       4.732500000000
       136    1       11.042500000000       3.155000000000       4.732500000000
       137    1       12.620000000000       3.155000000000       3.155000000000
       138    1       14.197500000000       4.732500000000       3.155000000000
       139    1       12.620000000000       4.732500000000       4.732500000000
       140    1       14.197500000000       3.155000000000       4.732500000000
       141    1        0.000000000000       6.310000000000       3.155000000000
       142    1        1.577500000000       7.887500000000       3.155000000000
       143    1        0.000000000000       7.887500000000       4.732500000000
       144    1        1.577500000000       6.310000000000       4.732500000000
       145    1        3.155000000000       6.310000000000       3.155000000000
       146    1        4.732500000000       7.887500000000       3.155000000000
       147    1        3.155000000000       7.887500000000       4.732500000000
       148    1        4.732500000000       6.310000000000       4.732500000000
       149    1        6.310000000000       6.310000000000       3.155000000000
       150    1        7.887500000000       7.887500000000       3.155000000000
       151    1        6.310000000000       7.887500000000       4.732500000000
       152    1        7.887500000000       6.310000000000       4.732500000000
       153    1        9.465000000000       6.310000000000       3.155000000000
       154    1       11.042500000000       7.887500000000       3.155000000000
       155    1        9.465000000000       7.887500000000       4.732500000000
       156    1       11.042500000000       6.310000000000       4.732500000000
       157    1       12.620000000000       6.310000000000       3.155000000000
       158    1       14.197500000000       7.887500000000       3.155000000000
       159    1       12.620000000000       7.887500000000       4.732500000000
       160    1       14.197500000000       6.310000000000       4.732500000000
       161    1        0.000000000000       9.465000000000       3.155000000000
       162    1        1.577500000000      11.042500000000       3.155000000000
       163    1        0.000000000000      11.042500000000       4.732500000000
       164    1        1.577500000000       9.465000000000       4.732500000000
       165    1        3.155000000000       9.465000000000       3.155000000000
       166    1        4.732500000000      11.042500000000       3.155000000000
       167    1        3.155000000000      11.042500000000       4.732500000000
       168    1        4.732500000000       9.465000000000       4.732500000000
       169    1        6.310000000000       9.465000000000       3.155000000000
       170    1        7.887500000000      11.042500000000       3.155000000000
       171    1        6.310000000000      11.042500000000       4.732500000000
       172    1        7.887500000000       9.465000000000       4.732500000000
       173    1        9.465000000000       9.465000000000       3.155000000000
       174    1       11.042500000000      11.042500000000       3.155000000000
       175    1        9.465000000000      11.042500000000       4.732500000000
       176    1       11.042500000000       9.465000000000       4.732500000000
       177    1       12.620000000000       9.465000000000       3.155000000000
       178    1       14.197500000000      11.042500000000       3.155000000000
       179    1       12.620000000000      11.042500000000       4.732500000000
       180    1       14.197500000000       9.465000000000       4.732500000000
       181    1        0.000000000000      12.620000000000       3.155000000000
       182    1        1.577500000000      14.197500000000       3.155000000000
       183    1        0.000000000000      14.197500000000       4.732500000000
       184    1        1.577500000000      12.620000000000       4.732500000000
       185    1        3.155000000000      12.620000000000       3.155000000000
       186    1        4.732500000000      14.197500000000       3.155000000000
       187    1        3.155000000000      14.197500000000       4.732500000000
       188    1        4.732500000000      12.620000000000       4.732500000000
       189    1        6.310000000000      12.620000000000       3.155000000000
       190    1        7.887500000000      14.197500000000       3.155000000000
       191    1        6.310000000000      14.197500000000       4.732500000000
       192    1        7.887500000000      12.620000000000       4.732500000000
       193    1        9.465000000000      12.620000000000       3.155000000000
       194    1       11.042500000000      14.197500000000       3.155000000000
       195    1        9.465000000000      14.197500000000       4.732500000000
       196    1       11.042500000000      12.620000000000       4.732500000000
       197    1       12.620000000000      12.620000000000       3.155000000000
       198    1       14.197500000000      14.197500000000       3.155000000000
       199    1       12.620000000000      14.197500000000       4.732500000000
       200    1       14.197500000000      12.620000000000       4.732500000000
       201    1        0.000000000000       0.000000000000       6.310000000000
       202    1        1.577500000000       1.577500000000       6.310000000000
       203    1        0.000000000000       1.577500000000       7.887500000000
       204    1        1.577500000000       0.000000000000       7.887500000000
       205    1        3.155000000000       0.000000000000       6.310000000000
       206    1        4.732500000000       1.577500000000       6.310000000000
       207    1        3.155000000000       1.577500000000       7.887500000000
       208    1        4.732500000000       0.000000000000       7.887500000000
       209    1        6.310000000000       0.000000000000       6.310000000000
       210    1        7.887500000000       1.577500000000       6.310000000000
       211    1        6.310000000000       1.577500000000       7.887500000000
       212    1        7.887500000000       0.000000000000       7.887500000000
       213    1        9.465000000000       0.000000000000       6.310000000000
       214    1       11.042500000000       1.577500000000       6.310000000000
       215    1        9.465000000000       1.577500000000       7.887500000000
       216    1       11.042500000000       0.000000000000       7.887500000000
       217    1       12.620000000000       0.000000000000       6.310000000000
       218    1       14.197500000000       1.577500000000       6.310000000000
       219    1       12.620000000000       1.577500000000       7.887500000000
       220    1       14.197500000000       0.000000000000       7.887500000000
       221    1        0.000000000000       3.155000000000       6.310000000000
       222    1        1.577500000000       4.732500000000       6.310000000000
       223    1        0.000000000000       4.732500000000       7.887500000000
       224    1        1.577500000000       3.155000000000       7.887500000000
       225    1        3.155000000000       3.155000000000       6.310000000000
       226    1        4.732500000000       4.732500000000       6.310000000000
       227    1        3.155000000000       4.732500000000       7.887500000000
       228    1        4.732500000000       3.155000000000       7.887500000000
       229    1        6.310000000000       3.155000000000       6.310000000000
       230    1        7.887500000000       4.732500000000       6.310000000000
       231    1        6.310000000000       4.732500000000       7.887500000000
       232    1        7.887500000000       3.155000000000       7.887500000000
       233    1        9.465000000000       3.155000000000       6.310000000000
       234    1       11.042500000000       4.732500000000       6.310000000000
       235    1        9.465000000000       4.732500000000       7.887500000000
       236    1       11.042500000000       3.155000000000       7.887500000000
       237    1       12.620000000000       3.155000000000       6.310000000000
       238    1       14.197500000000       4.732500000000       6.310000000000
       239    1       12.620000000000       4.732500000000       7.887500000000
       240    1       14.197500000000       3.155000000000       7.887500000000
       241    1        0.000000000000       6.310000000000       6.310000000000
       242    1        1.577500000000       7.887500000000       6.310000000000
       243    1        0.000000000000       7.887500000000       7.887500000000
       244    1        1.577500000000       6.310000000000       7.887500000000
       245    1        3.155000000000       6.310000000000       6.310000000000
       246    1        4.732500000000       7.887500000000       6.310000000000
       247    1        3.155000000000       7.887500000000       7.887500000000
       248    1        4.732500000000       6.310000000000       7.887500000000
       249    1        6.310000000000       6.310000000000       6.310000000000
       250    1        7.887500000000       7.887500000000       6.310000000000
       251    1        6.310000000000       7.887500000000       7.887500000000
       252    1        7.887500000000       6.310000000000       7.887500000000
       253    1        9.465000000000       6.310000000000       6.310000000000
       254    1       11.042500000000       7.887500000000       6.310000000000
       255    1        9.465000000000       7.887500000000       7.887500000000
       256    1       11.042500000000       6.310000000000       7.887500000000
       257    1       12.620000000000       6.310000000000       6.310000000000
       258    1       14.197500000000       7.887500000000       6.310000000000
       259    1       12.620000000000       7.887500000000       7.887500000000
       260    1       14.197500000000       6.310000000000       7.887500000000
       261    1        0.000000000000       9.465000000000       6.310000000000
       262    1        1.577500000000      11.042500000000       6.310000000000
       263    1        0.000000000000      11.042500000000       7.887500000000
       264    1        1.577500000000       9.465000000000       7.887500000000
       265    1        3.155000000000       9.465000000000       6.310000000000
       266    1        4.732500000000      11.042500000000       6.310000000000
       267    1        3.155000000000      11.042500000000       7.887500000000
       268    1        4.732500000000       9.465000000000       7.887500000000
       269    1        6.310000000000       9.465000000000       6.310000000000
       270    1        7.887500000000      11.042500000000       6.310000000000
       271    1        6.310000000000      11.042500000000       7.887500000000
       272    1        7.887500000000       9.465000000000       7.887500000000
       273    1        9.465000000000       9.465000000000       6.310000000000
       274    1       11.042500000000      11.042500000000       6.310000000000
       275    1        9.465000000000      11.042500000000       7.887500000000
       276    1       11.042500000000       9.465000000000       7.887500000000
       277    1       12.620000000000       9.465000000000       6.310000000000
       278    1       14.197500000000      11.042500000000       6.310000000000
       279    1       12.620000000000      11.042500000000       7.887500000000
       280    1       14.197500000000       9.465000000000       7.887500000000
       281    1        0.000000000000      12.620000000000       6.310000000000
       282    1        1.577500000000      14.197500000000       6.310000000000
       283    1        0.000000000000      14.197500000000       7.887500000000
       284    1        1.577500000000      12.620000000000       7.887500000000
       285    1        3.155000000000      12.620000000000       6.310000000000
       286    1        4.732500000000      14.197500000000       6.310000000000
       287    1        3.155000000000      14.197500000000       7.887500000000
       288    1        4.732500000000      12.620000000000       7.887500000000
       289    1        6.310000000000      12.620000000000       6.310000000000
       290    1        7.887500000000      14.197500000000       6.310000000000
       291    1        6.310000000000      14.197500000000       7.887500000000
       292    1        7.887500000000      12.620000000000       7.887500000000
       293    1        9.465000000000      12.620000000000       6.310000000000
       294    1       11.042500000000      14.197500000000       6.310000000000
       295    1        9.465000000000      14.197500000000       7.887500000000
       296    1       11.042500000000      12.620000000000       7.887500000000
       297    1       12.620000000000      12.620000000000       6.310000000000
       298    1       14.197500000000      14.197500000000       6.310000000000
       299    1       12.620000000000      14.197500000000       7.887500000000
       300    1       14.197500000000      12.620000000000       7.887500000000
       301    1        0.000000000000       0.000000000000       9.465000000000
       302    1        1.577500000000       1.577500000000       9.465000000000
       303    1        0.000000000000       1.577500000000      11.042500000000
       304    1        1.577500000000       0.000000000000      11.042500000000
       305    1        3.155000000000       0.000000000000       9.465000000000
       306    1        4.732500000000       1.577500000000       9.465000000000
       307    1        3.155000000000       1.577500000000      11.042500000000
       308    1        4.732500000000       0.000000000000      11.042500000000
       309    1        6.310000000000       0.000000000000       9.465000000000
       310    1        7.887500000000       1.577500000000       9.465000000000
       311    1        6.310000000000       1.577500000000      11.042500000000
       312    1        7.887500000000       0.000000000000      11.042500000000
       313    1        9.465000000000       0.000000000000       9.465000000000
       314    1       11.042500000000       1.577500000000       9.465000000000
       315    1        9.465000000000       1.577500000000      11.042500000000
       316    1       11.042500000000       0.000000000000      11.042500000000
       317    1       12.620000000000       0.000000000000       9.465000000000
       318    1       14.197500000000       1.577500000000       9.465000000000
       319    1       12.620000000000       1.577500000000      11.042500000000
       320    1       14.197500000000       0.000000000000      11.042500000000
       321    1        0.000000000000       3.155000000000       9.465000000000
       322    1        1.577500000000       4.732500000000       9.465000000000
       323    1        0.000000000000       4.732500000000      11.042500000000
       324    1        1.577500000000       3.155000000000      11.042500000000
       325    1        3.155000000000       3.155000000000       9.465000000000
       326    1        4.732500000000       4.732500000000       9.465000000000
       327    1        3.155000000000       4.732500000000      11.042500000000
       328    1        4.732500000000       3.155000000000      11.042500000000
       329    1        6.310000000000       3.155000000000       9.465000000000
       330    1        7.887500000000       4.732500000000       9.465000000000
       331    1        6.310000000000       4.732500000000      11.042500000000
       332    1        7.887500000000       3.155000000000      11.042500000000
       333    1        9.465000000000       3.155000000000       9.465000000000
       334    1       11.042500000000       4.732500000000       9.465000000000
       335    1        9.465000000000       4.732500000000      11.042500000000
       336    1       11.042500000000       3.155000000000      11.042500000000
       337    1       12.620000000000       3.155000000000       9.465000000000
       338    1       14.197500000000       4.732500000000       9.465000000000
       339    1       12.620000000000       4.732500000000      11.042500000000
       340    1       14.197500000000       3.155000000000      11.042500000000
       341    1        0.000000000000       6.310000000000       9.465000000000
       342    1        1.577500000000       7.887500000000       9.465000000000
       343    1        0.000000000000       7.887500000000      11.042500000000
       344    1        1.577500000000       6.310000000000      11.042500000000
       345    1        3.155000000000       6.310000000000       9.465000000000
       346    1        4.732500000000       7.887500000000       9.465000000000
       347    1        3.155000000000       7.887500000000      11.042500000000
       348    1        4.732500000000       6.310000000000      11.042500000000
       349    1        6.310000000000       6.310000000000       9.465000000000
       350    1        7.887500000000       7.887500000000       9.465000000000
       351    1        6.310000000000       7.887500000000      11.042500000000
       352    1        7.887500000000       6.310000000000      11.042500000000
       353    1        9.465000000000       6.310000000000       9.465000000000
       354    1       11.042500000000       7.887500000000       9.465000000000
       355    1        9.465000000000       7.887500000000      11.042500000000
       356    1       11.042500000000       6.310000000000      11.042500000000
       357    1       12.620000000000       6.310000000000       9.465000000000
       358    1       14.197500000000       7.887500000000       9.465000000000
       359    1       12.620000000000       7.887500000000      11.042500000000
       360    1       14.197500000000       6.310000000000      11.042500000000
       361    1        0.000000000000       9.465000000000       9.465000000000
       362    1        1.577500000000      11.042500000000       9.465000000000
       363    1        0.000000000000      11.042500000000      11.042500000000
       364    1        1.577500000000       9.465000000000      11.042500000000
       365    1        3.155000000000       9.465000000000       9.465000000000
       366    1        4.732500000000      11.042500000000       9.465000000000