 # Hcp Mg with box vectors H1=[2-1-10], H2=[-12-10], H3=[0001].
 
         250  atoms
           1  atom types
 
      0.000000000000      16.050000000000  xlo xhi
      0.000000000000      13.899707730740  ylo yhi
      0.000000000000      26.065000000000  zlo zhi
     -8.025000000000       0.000000000000       0.000000000000  xy xz yz
 
Masses
 
            1   24.30500000             # Mg
 
Atoms # atomic
 
         1    1        0.000000000000       0.000000000000       0.000000000000
         2    1        0.000000000000       1.853294364099       2.606500000000
         3    1        3.210000000000       0.000000000000       0.000000000000
         4    1        3.210000000000       1.853294364099       2.606500000000
         5    1        6.420000000000       0.000000000000       0.000000000000
         6    1        6.420000000000       1.853294364099       2.606500000000
         7    1        9.630000000000       0.000000000000       0.000000000000
         8    1        9.630000000000       1.853294364099       2.606500000000
         9    1       12.840000000000       0.000000000000       0.000000000000
        10    1       12.840000000000       1.853294364099       2.606500000000
        11    1       -1.605000000000       2.779941546148       0.000000000000
        12    1       -1.605000000000       4.633235910247       2.606500000000
        13    1        1.605000000000       2.779941546148       0.000000000000
        14    1        1.605000000000       4.633235910247       2.606500000000
        15    1        4.815000000000       2.779941546148       0.000000000000
        16    1        4.815000000000       4.633235910247       2.606500000000
        17    1        8.025000000000       2.779941546148       0.000000000000
        18    1        8.025000000000       4.633235910247       2.606500000000
        19    1       11.235000000000       2.779941546148       0.000000000000
        20    1       11.235000000000       4.633235910247       2.606500000000
        21    1       -3.210000000000       5.559883092296       0.000000000000
        22    1       -3.210000000000       7.413177456395       2.606500000000
        23    1        0.000000000000       5.559883092296       0.000000000000
        24    1        0.000000000000       7.413177456395       2.606500000000
        25    1        3.210000000000       5.559883092296       0.000000000000
        26    1        3.210000000000       7.413177456395       2.606500000000
        27    1        6.420000000000       5.559883092296       0.000000000000
        28    1        6.420000000000       7.413177456395       2.606500000000
        29    1        9.630000000000       5.559883092296       0.000000000000
        30    1        9.630000000000       7.413177456395       2.606500000000
        31    1       -4.815000000000       8.339824638444       0.000000000000
        32    1       -4.815000000000      10.193119002543       2.606500000000
        33    1       -1.605000000000       8.339824638444       0.000000000000
        34    1       -1.605000000000      10.193119002543       2.606500000000
        35    1        1.605000000000       8.339824638444       0.000000000000
        36    1        1.605000000000      10.193119002543       2.606500000000
        37    1        4.815000000000       8.339824638444       0.000000000000
        38    1        4.815000000000      10.193119002543       2.606500000000
        39    1        8.025000000000       8.339824638444       0.000000000000
        40    1        8.025000000000      10.193119002543       2.606500000000
        41    1       -6.420000000000      11.119766184592       0.000000000000
        42    1       -6.420000000000      12.973060548691       2.606500000000
        43    1       -3.210000000000      11.119766184592       0.000000000000
        44    1       -3.210000000000      12.973060548691       2.606500000000
        45    1        0.000000000000      11.119766184592       0.000000000000
        46    1        0.000000000000      12.973060548691       2.606500000000
        47    1        3.210000000000      11.119766184592       0.000000000000
        48    1        3.210000000000      12.973060548691       2.606500000000
        49    1        6.420000000000      11.119766184592       0.000000000000
        50    1        6.420000000000      12.973060548691       2.606500000000
        51    1        0.000000000000       0.000000000000       5.213000000000
        52    1        0.000000000000       1.853294364099       7.819500000000
        53    1        3.210000000000       0.000000000000       5.213000000000
        54    1        3.210000000000       1.853294364099       7.819500000000
        55    1        6.420000000000       0.000000000000       5.213000000000
        56    1        6.420000000000       1.853294364099       7.819500000000
        57    1        9.630000000000       0.000000000000       5.213000000000
        58    1        9.630000000000       1.853294364099       7.819500000000
        59    1       12.840000000000       0.000000000000       5.213000000000
        60    1       12.840000000000       1.853294364099       7.819500000000
        61    1       -1.605000000000       2.779941546148       5.213000000000
        62    1       -1.605000000000       4.633235910247       7.819500000000
        63    1        1.605000000000       2.779941546148       5.213000000000
        64    1        1.605000000000       4.633235910247       7.819500000000
        65    1        4.815000000000       2.779941546148       5.213000000000
        66    1        4.815000000000       4.633235910247       7.819500000000
        67    1        8.025000000000       2.779941546148       5.213000000000
        68    1        8.025000000000       4.633235910247       7.819500000000
        69    1       11.235000000000       2.779941546148       5.213000000000
        70    1       11.235000000000       4.633235910247       7.819500000000
        71    1       -3.210000000000       5.559883092296       5.213000000000
        72    1       -3.210000000000       7.413177456395       7.819500000000
        73    1        0.000000000000       5.559883092296       5.213000000000
        74    1        0.000000000000       7.413177456395       7.819500000000
        75    1        3.210000000000       5.559883092296       5.213000000000
        76    1        3.210000000000       7.413177456395       7.819500000000
        77    1        6.420000000000       5.559883092296       5.213000000000
        78    1        6.420000000000       7.413177456395       7.819500000000
        79    1        9.630000000000       5.559883092296       5.213000000000
        80    1        9.630000000000       7.413177456395       7.819500000000
        81    1       -4.815000000000       8.339824638444       5.213000000000
        82    1       -4.815000000000      10.193119002543       7.819500000000
        83    1       -1.605000000000       8.339824638444       5.213000000000
        84    1       -1.605000000000      10.193119002543       7.819500000000
        85    1        1.605000000000       8.339824638444       5.213000000000
        86    1        1.605000000000      10.193119002543       7.819500000000
        87    1        4.815000000000       8.339824638444       5.213000000000
        88    1        4.815000000000      10.193119002543       7.819500000000
        89    1        8.025000000000       8.339824638444       5.213000000000
        90    1        8.025000000000      10.193119002543       7.819500000000
        91    1       -6.420000000000      11.119766184592       5.213000000000
        92    1       -6.420000000000      12.973060548691       7.819500000000
        93    1       -3.210000000000      11.119766184592       5.213000000000
        94    1       -3.210000000000      12.973060548691       7.819500000000
        95    1        0.000000000000      11.119766184592       5.213000000000
        96    1        0.000000000000      12.973060548691       7.819500000000
        97    1        3.210000000000      11.119766184592       5.213000000000
        98    1        3.210000000000      12.973060548691       7.819500000000
        99    1        6.420000000000      11.119766184592       5.213000000000
       100    1        6.420000000000      12.973060548691       7.819500000000
       101    1        0.000000000000       0.000000000000      10.426000000000
       102    1        0.000000000000       1.853294364099      13.032500000000
       103    1        3.210000000000       0.000000000000      10.426000000000
       104    1        3.210000000000       1.853294364099      13.032500000000
       105    1        6.420000000000       0.000000000000      10.426000000000
       106    1        6.420000000000       1.853294364099      13.032500000000
       107    1        9.630000000000       0.000000000000      10.426000000000
       108    1        9.630000000000       1.853294364099      13.032500000000
       109    1       12.840000000000       0.000000000000      10.426000000000
       110    1       12.840000000000       1.853294364099      13.032500000000
       111    1       -1.605000000000       2.779941546148      10.426000000000
       112    1       -1.605000000000       4.633235910247      13.032500000000
       113    1        1.605000000000       2.779941546148      10.426000000000
       114    1        1.605000000000       4.633235910247      13.032500000000
       115    1        4.815000000000       2.779941546148      10.426000000000
       116    1        4.815000000000       4.633235910247      13.032500000000
       117    1        8.025000000000       2.779941546148      10.426000000000
       118    1        8.025000000000       4.633235910247      13.032500000000
       119    1       11.235000000000       2.779941546148      10.426000000000
       120    1       11.235000000000       4.633235910247      13.032500000000
       121    1       -3.210000000000       5.559883092296      10.426000000000
       122    1       -3.210000000000       7.413177456395      13.032500000000
       123    1        0.000000000000       5.559883092296      10.426000000000
       124    1        0.000000000000       7.413177456395      13.032500000000
       125    1        3.210000000000       5.559883092296      10.426000000000
       126    1        3.210000000000       7.413177456395      13.032500000000
       127    1        6.420000000000       5.559883092296      10.426000000000
       128    1        6.420000000000       7.413177456395      13.032500000000
       129    1        9.630000000000       5.559883092296      10.426000000000
       130    1        9.630000000000       7.413177456395      13.032500000000
       131    1       -4.815000000000       8.339824638444      10.426000000000
       132    1       -4.815000000000      10.193119002543      13.032500000000
       133    1       -1.605000000000       8.339824638444      10.426000000000
       134    1       -1.605000000000      10.193119002543      13.032500000000
       135    1        1.605000000000       8.339824638444      10.426000000000
       136    1        1.605000000000      10.193119002543      13.032500000000
       137    1        4.815000000000       8.339824638444      10.426000000000
       138    1        4.815000000000      10.193119002543      13.032500000000
       139    1        8.025000000000       8.339824638444      10.426000000000
       140    1        8.025000000000      10.193119002543      13.032500000000
       141    1       -6.420000000000      11.119766184592      10.426000000000
       142    1       -6.420000000000      12.973060548691      13.032500000000
       143    1       -3.210000000000      11.119766184592      10.426000000000
       144    1       -3.210000000000      12.973060548691      13.032500000000
       145    1        0.000000000000      11.119766184592      10.426000000000
       146    1        0.000000000000      12.973060548691      13.032500000000
       147    1        3.210000000000      11.119766184592      10.426000000000
       148    1        3.210000000000      12.973060548691      13.032500000000
       149    1        6.420000000000      11.119766184592      10.426000000000
       150    1        6.420000000000      12.973060548691      13.032500000000
       151    1        0.000000000000       0.000000000000      15.639000000000
       152    1        0.000000000000       1.853294364099      18.245500000000
       153    1        3.210000000000       0.000000000000      15.639000000000
       154    1        3.210000000000       1.853294364099      18.245500000000
       155    1        6.420000000000       0.000000000000      15.639000000000
       156    1        6.420000000000       1.853294364099      18.245500000000
       157    1        9.630000000000       0.000000000000      15.639000000000
       158    1        9.630000000000       1.853294364099      18.245500000000
       159    1       12.840000000000       0.000000000000      15.639000000000
       160    1       12.840000000000       1.853294364099      18.245500000000
       161    1       -1.605000000000       2.779941546148      15.639000000000
       162    1       -1.605000000000       4.633235910247      18.245500000000
       163    1        1.605000000000       2.779941546148      15.639000000000
       164    1        1.605000000000       4.633235910247      18.245500000000
       165    1        4.815000000000       2.779941546148      15.639000000000
       166    1        4.815000000000       4.633235910247      18.245500000000
       167    1        8.025000000000       2.779941546148      15.639000000000
       168    1        8.025000000000       4.633235910247      18.245500000000
       169    1       11.235000000000       2.779941546148      15.639000000000
       170    1       11.235000000000       4.633235910247      18.245500000000
       171    1       -3.210000000000       5.559883092296      15.639000000000
       172    1       -3.210000000000       7.413177456395      18.245500000000
       173    1        0.000000000000       5.559883092296      15.639000000000
       174    1        0.000000000000       7.413177456395      18.245500000000
       175    1        3.210000000000       5.559883092296      15.639000000000
       176    1        3.210000000000       7.413177456395      18.245500000000
       177    1        6.420000000000       5.559883092296      15.639000000000
       178    1        6.420000000000       7.413177456395      18.245500000000
       179    1        9.630000000000       5.559883092296      15.639000000000
       180    1        9.630000000000       7.413177456395      18.245500000000
       181    1       -4.815000000000       8.339824638444      15.639000000000
       182    1       -4.815000000000      10.193119002543      18.245500000000
       183    1       -1.605000000000       8.339824638444      15.639000000000
       184    1       -1.605000000000      10.193119002543      18.245500000000
       185    1        1.605000000000       8.339824638444      15.639000000000
       186    1        1.605000000000      10.193119002543      18.245500000000
       187    1        4.815000000000       8.339824638444      15.639000000000
       188    1        4.815000000000      10.193119002543      18.245500000000
       189    1        8.025000000000       8.339824638444      15.639000000000
       190    1        8.025000000000      10.193119002543      18.245500000000
       191    1       -6.420000000000      11.119766184592      15.639000000000
       192    1       -6.420000000000      12.973060548691      18.245500000000
       193    1       -3.210000000000      11.119766184592      15.639000000000
       194    1       -3.210000000000      12.973060548691      18.245500000000
       195    1        0.000000000000      11.119766184592      15.639000000000
       196    1        0.000000000000      12.973060548691      18.245500000000
       197    1        3.210000000000      11.119766184592      15.639000000000
       198    1        3.210000000000      12.973060548691      18.245500000000
       199    1        6.420000000000      11.119766184592      15.639000000000
       200    1        6.420000000000      12.973060548691      18.245500000000
       201    1        0.000000000000       0.000000000000      20.852000000000
       202    1        0.000000000000       1.853294364099      23.458500000000
       203    1        3.210000000000       0.000000000000      20.852000000000
       204    1        3.210000000000       1.853294364099      23.458500000000
       205    1        6.420000000000       0.000000000000      20.852000000000
       206    1        6.420000000000       1.853294364099      23.458500000000
       207    1        9.630000000000       0.000000000000      20.852000000000
       208    1        9.630000000000       1.853294364099      23.458500000000
       209    1       12.840000000000       0.000000000000      20.852000000000
       210    1       12.840000000000       1.853294364099      23.458500000000
       211    1       -1.605000000000       2.779941546148      20.852000000000
       212    1       -1.605000000000       4.633235910247      23.458500000000
       213    1        1.605000000000       2.779941546148      20.852000000000
       214    1        1.605000000000       4.633235910247      23.458500000000
       215    1        4.815000000000       2.779941546148      20.852000000000
       216    1        4.815000000000       4.633235910247      23.458500000000
       217    1        8.025000000000       2.779941546148      20.852000000000
       218    1        8.025000000000       4.633235910247      23.458500000000
       219    1       11.235000000000       2.779941546148      20.852000000000
       220    1       11.235000000000       4.633235910247      23.458500000000
       221    1       -3.210000000000       5.559883092296      20.852000000000
       222    1       -3.210000000000       7.413177456395      23.458500000000
       223    1        0.000000000000       5.559883092296      20.852000000000
       224    1        0.000000000000       7.413177456395      23.458500000000
       225    1        3.210000000000       5.559883092296      20.852000000000
       226    1        3.210000000000       7.413177456395      23.458500000000
       227    1        6.420000000000       5.559883092296      20.852000000000
       228    1        6.420000000000       7.413177456395      23.458500000000
       229    1        9.630000000000       5.559883092296      20.852000000000
       230    1        9.630000000000       7.413177456395      23.458500000000
       231    1       -4.815000000000       8.339824638444      20.852000000000
       232    1       -4.815000000000      10.193119002543      23.458500000000
       233    1       -1.605000000000       8.339824638444      20.852000000000
       234    1       -1.605000000000      10.193119002543      23.458500000000
       235    1        1.605000000000       8.339824638444      20.852000000000
       236    1        1.605000000000      10.193119002543      23.458500000000
       237    1        4.815000000000       8.339824638444      20.852000000000
       238    1        4.815000000000      10.193119002543      23.458500000000
       239    1        8.025000000000       8.339824638444      20.852000000000
       240    1        8.025000000000      10.193119002543      23.458500000000
       241    1       -6.420000000000      11.119766184592      20.852000000000
       242    1       -6.420000000000      12.973060548691      23.458500000000
       243    1       -3.210000000000      11.119766184592      20.852000000000
       244    1       -3.210000000000      12.973060548691      23.458500000000
       245    1        0.000000000000      11.119766184592      20.852000000000
       246    1        0.000000000000      12.973060548691      23.458500000000
       247    1        3.210000000000      11.119766184592      20.852000000000
       248    1        3.210000000000      12.973060548691      23.458500000000
       249    1        6.420000000000      11.119766184592      20.852000000000
       250    1        6.420000000000      12.973060548691      23.458500000000
