 # Nb6 Sn2
 
         216  atoms
           2  atom types
 
      0.000000000000      15.630000000000  xlo xhi
      0.000000000000      15.630000000000  ylo yhi
      0.000000000000      15.630000000000  zlo zhi
 
Masses
 
            1   92.90638000             # Nb
            2   118.71000000            # Sn
 
Atoms # atomic
 
         1    1        1.302500000000       0.000000000000       2.605000000000
         2    1        3.907500000000       0.000000000000       2.605000000000
         3    1        0.000000000000       2.605000000000       1.302500000000
         4    1        0.000000000000       2.605000000000       3.907500000000
         5    1        2.605000000000       3.907500000000       0.000000000000
         6    1        2.605000000000       1.302500000000       0.000000000000
         7    2        0.000000000000       0.000000000000       0.000000000000
         8    2        2.605000000000       2.605000000000       2.605000000000
         9    1        6.512500000000       0.000000000000       2.605000000000
        10    1        9.117500000000       0.000000000000       2.605000000000
        11    1        5.210000000000       2.605000000000       1.302500000000
        12    1        5.210000000000       2.605000000000       3.907500000000
        13    1        7.815000000000       3.907500000000       0.000000000000
        14    1        7.815000000000       1.302500000000       0.000000000000
        15    2        5.210000000000       0.000000000000       0.000000000000
        16    2        7.815000000000       2.605000000000       2.605000000000
        17    1       11.722500000000       0.000000000000       2.605000000000
        18    1       14.327500000000       0.000000000000       2.605000000000
        19    1       10.420000000000       2.605000000000       1.302500000000
        20    1       10.420000000000       2.605000000000       3.907500000000
        21    1       13.025000000000       3.907500000000       0.000000000000
        22    1       13.025000000000       1.302500000000       0.000000000000
        23    2       10.420000000000       0.000000000000       0.000000000000
        24    2       13.025000000000       2.605000000000       2.605000000000
        25    1        1.302500000000       5.210000000000       2.605000000000
        26    1        3.907500000000       5.210000000000       2.605000000000
        27    1        0.000000000000       7.815000000000       1.302500000000
        28    1        0.000000000000       7.815000000000       3.907500000000
        29    1        2.605000000000       9.117500000000       0.000000000000
        30    1        2.605000000000       6.512500000000       0.000000000000
        31    2        0.000000000000       5.210000000000       0.000000000000
        32    2        2.605000000000       7.815000000000       2.605000000000
        33    1        6.512500000000       5.210000000000       2.605000000000
        34    1        9.117500000000       5.210000000000       2.605000000000
        35    1        5.210000000000       7.815000000000       1.302500000000
        36    1        5.210000000000       7.815000000000       3.907500000000
        37    1        7.815000000000       9.117500000000       0.000000000000
        38    1        7.815000000000       6.512500000000       0.000000000000
        39    2        5.210000000000       5.210000000000       0.000000000000
        40    2        7.815000000000       7.815000000000       2.605000000000
        41    1       11.722500000000       5.210000000000       2.605000000000
        42    1       14.327500000000       5.210000000000       2.605000000000
        43    1       10.420000000000       7.815000000000       1.302500000000
        44    1       10.420000000000       7.815000000000       3.907500000000
        45    1       13.025000000000       9.117500000000       0.000000000000
        46    1       13.025000000000       6.512500000000       0.000000000000
        47    2       10.420000000000       5.210000000000       0.000000000000
        48    2       13.025000000000       7.815000000000       2.605000000000
        49    1        1.302500000000      10.420000000000       2.605000000000
        50    1        3.907500000000      10.420000000000       2.605000000000
        51    1        0.000000000000      13.025000000000       1.302500000000
        52    1        0.000000000000      13.025000000000       3.907500000000
        53    1        2.605000000000      14.327500000000       0.000000000000
        54    1        2.605000000000      11.722500000000       0.000000000000
        55    2        0.000000000000      10.420000000000       0.000000000000
        56    2        2.605000000000      13.025000000000       2.605000000000
        57    1        6.512500000000      10.420000000000       2.605000000000
        58    1        9.117500000000      10.420000000000       2.605000000000
        59    1        5.210000000000      13.025000000000       1.302500000000
        60    1        5.210000000000      13.025000000000       3.907500000000
        61    1        7.815000000000      14.327500000000       0.000000000000
        62    1        7.815000000000      11.722500000000       0.000000000000
        63    2        5.210000000000      10.420000000000       0.000000000000
        64    2        7.815000000000      13.025000000000       2.605000000000
        65    1       11.722500000000      10.420000000000       2.605000000000
        66    1       14.327500000000      10.420000000000       2.605000000000
        67    1       10.420000000000      13.025000000000       1.302500000000
        68    1       10.420000000000      13.025000000000       3.907500000000
        69    1       13.025000000000      14.327500000000       0.000000000000
        70    1       13.025000000000      11.722500000000       0.000000000000
        71    2       10.420000000000      10.420000000000       0.000000000000
        72    2       13.025000000000      13.025000000000       2.605000000000
        73    1        1.302500000000       0.000000000000       7.815000000000
        74    1        3.907500000000       0.000000000000       7.815000000000
        75    1        0.000000000000       2.605000000000       6.512500000000
        76    1        0.000000000000       2.605000000000       9.117500000000
        77    1        2.605000000000       3.907500000000       5.210000000000
        78    1        2.605000000000       1.302500000000       5.210000000000
        79    2        0.000000000000       0.000000000000       5.210000000000
        80    2        2.605000000000       2.605000000000       7.815000000000
        81    1        6.512500000000       0.000000000000       7.815000000000
        82    1        9.117500000000       0.000000000000       7.815000000000
        83    1        5.210000000000       2.605000000000       6.512500000000
        84    1        5.210000000000       2.605000000000       9.117500000000
        85    1        7.815000000000       3.907500000000       5.210000000000
        86    1        7.815000000000       1.302500000000       5.210000000000
        87    2        5.210000000000       0.000000000000       5.210000000000
        88    2        7.815000000000       2.605000000000       7.815000000000
        89    1       11.722500000000       0.000000000000       7.815000000000
        90    1       14.327500000000       0.000000000000       7.815000000000
        91    1       10.420000000000       2.605000000000       6.512500000000
        92    1       10.420000000000       2.605000000000       9.117500000000
        93    1       13.025000000000       3.907500000000       5.210000000000
        94    1       13.025000000000       1.302500000000       5.210000000000
        95    2       10.420000000000       0.000000000000       5.210000000000
        96    2       13.025000000000       2.605000000000       7.815000000000
        97    1        1.302500000000       5.210000000000       7.815000000000
        98    1        3.907500000000       5.210000000000       7.815000000000
        99    1        0.000000000000       7.815000000000       6.512500000000
       100    1        0.000000000000       7.815000000000       9.117500000000
       101    1        2.605000000000       9.117500000000       5.210000000000
       102    1        2.605000000000       6.512500000000       5.210000000000
       103    2        0.000000000000       5.210000000000       5.210000000000
       104    2        2.605000000000       7.815000000000       7.815000000000
       105    1        6.512500000000       5.210000000000       7.815000000000
       106    1        9.117500000000       5.210000000000       7.815000000000
       107    1        5.210000000000       7.815000000000       6.512500000000
       108    1        5.210000000000       7.815000000000       9.117500000000
       109    1        7.815000000000       9.117500000000       5.210000000000
       110    1        7.815000000000       6.512500000000       5.210000000000
       111    2        5.210000000000       5.210000000000       5.210000000000
       112    2        7.815000000000       7.815000000000       7.815000000000
       113    1       11.722500000000       5.210000000000       7.815000000000
       114    1       14.327500000000       5.210000000000       7.815000000000
       115    1       10.420000000000       7.815000000000       6.512500000000
       116    1       10.420000000000       7.815000000000       9.117500000000
       117    1       13.025000000000       9.117500000000       5.210000000000
       118    1       13.025000000000       6.512500000000       5.210000000000
       119    2       10.420000000000       5.210000000000       5.210000000000
       120    2       13.025000000000       7.815000000000       7.815000000000
       121    1        1.302500000000      10.420000000000       7.815000000000
       122    1        3.907500000000      10.420000000000       7.815000000000
       123    1        0.000000000000      13.025000000000       6.512500000000
       124    1        0.000000000000      13.025000000000       9.117500000000
       125    1        2.605000000000      14.327500000000       5.210000000000
       126    1        2.605000000000      11.722500000000       5.210000000000
       127    2        0.000000000000      10.420000000000       5.210000000000
       128    2        2.605000000000      13.025000000000       7.815000000000
       129    1        6.512500000000      10.420000000000       7.815000000000
       130    1        9.117500000000      10.420000000000       7.815000000000
       131    1        5.210000000000      13.025000000000       6.512500000000
       132    1        5.210000000000      13.025000000000       9.117500000000
       133    1        7.815000000000      14.327500000000       5.210000000000
       134    1        7.815000000000      11.722500000000       5.210000000000
       135    2        5.210000000000      10.420000000000       5.210000000000
       136    2        7.815000000000      13.025000000000       7.815000000000
       137    1       11.722500000000      10.420000000000       7.815000000000
       138    1       14.327500000000      10.420000000000       7.815000000000
       139    1       10.420000000000      13.025000000000       6.512500000000
       140    1       10.420000000000      13.025000000000       9.117500000000
       141    1       13.025000000000      14.327500000000       5.210000000000
       142    1       13.025000000000      11.722500000000       5.210000000000
       143    2       10.420000000000      10.420000000000       5.210000000000
       144    2       13.025000000000      13.025000000000       7.815000000000
       145    1        1.302500000000       0.000000000000      13.025000000000
       146    1        3.907500000000       0.000000000000      13.025000000000
       147    1        0.000000000000       2.605000000000      11.722500000000
       148    1        0.000000000000       2.605000000000      14.327500000000
       149    1        2.605000000000       3.907500000000      10.420000000000
       150    1        2.605000000000       1.302500000000      10.420000000000
       151    2        0.000000000000       0.000000000000      10.420000000000
       152    2        2.605000000000       2.605000000000      13.025000000000
       153    1        6.512500000000       0.000000000000      13.025000000000
       154    1        9.117500000000       0.000000000000      13.025000000000
       155    1        5.210000000000       2.605000000000      11.722500000000
       156    1        5.210000000000       2.605000000000      14.327500000000
       157    1        7.815000000000       3.907500000000      10.420000000000
       158    1        7.815000000000       1.302500000000      10.420000000000
       159    2        5.210000000000       0.000000000000      10.420000000000
       160    2        7.815000000000       2.605000000000      13.025000000000
       161    1       11.722500000000       0.000000000000      13.025000000000
       162    1       14.327500000000       0.000000000000      13.025000000000
       163    1       10.420000000000       2.605000000000      11.722500000000
       164    1       10.420000000000       2.605000000000      14.327500000000
       165    1       13.025000000000       3.907500000000      10.420000000000
       166    1       13.025000000000       1.302500000000      10.420000000000
       167    2       10.420000000000       0.000000000000      10.420000000000
       168    2       13.025000000000       2.605000000000      13.025000000000
       169    1        1.302500000000       5.210000000000      13.025000000000
       170    1        3.907500000000       5.210000000000      13.025000000000
       171    1        0.000000000000       7.815000000000      11.722500000000
       172    1        0.000000000000       7.815000000000      14.327500000000
       173    1        2.605000000000       9.117500000000      10.420000000000
       174    1        2.605000000000       6.512500000000      10.420000000000
       175    2        0.000000000000       5.210000000000      10.420000000000
       176    2        2.605000000000       7.815000000000      13.025000000000
       177    1        6.512500000000       5.210000000000      13.025000000000
       178    1        9.117500000000       5.210000000000      13.025000000000
       179    1        5.210000000000       7.815000000000      11.722500000000
       180    1        5.210000000000       7.815000000000      14.327500000000
       181    1        7.815000000000       9.117500000000      10.420000000000
       182    1        7.815000000000       6.512500000000      10.420000000000
       183    2        5.210000000000       5.210000000000      10.420000000000
       184    2        7.815000000000       7.815000000000      13.025000000000
       185    1       11.722500000000       5.210000000000      13.025000000000
       186    1       14.327500000000       5.210000000000      13.025000000000
       187    1       10.420000000000       7.815000000000      11.722500000000
       188    1       10.420000000000       7.815000000000      14.327500000000
       189    1       13.025000000000       9.117500000000      10.420000000000
       190    1       13.025000000000       6.512500000000      10.420000000000
       191    2       10.420000000000       5.210000000000      10.420000000000
       192    2       13.025000000000       7.815000000000      13.025000000000
       193    1        1.302500000000      10.420000000000      13.025000000000
       194    1        3.907500000000      10.420000000000      13.025000000000
       195    1        0.000000000000      13.025000000000      11.722500000000
       196    1        0.000000000000      13.025000000000      14.327500000000
       197    1        2.605000000000      14.327500000000      10.420000000000
       198    1        2.605000000000      11.722500000000      10.420000000000
       199    2        0.000000000000      10.420000000000      10.420000000000
       200    2        2.605000000000      13.025000000000      13.025000000000
       201    1        6.512500000000      10.420000000000      13.025000000000
       202    1        9.117500000000      10.420000000000      13.025000000000
       203    1        5.210000000000      13.025000000000      11.722500000000
       204    1        5.210000000000      13.025000000000      14.327500000000
       205    1        7.815000000000      14.327500000000      10.420000000000
       206    1        7.815000000000      11.722500000000      10.420000000000
       207    2        5.210000000000      10.420000000000      10.420000000000
       208    2        7.815000000000      13.025000000000      13.025000000000
       209    1       11.722500000000      10.420000000000      13.025000000000
       210    1       14.327500000000      10.420000000000      13.025000000000
       211    1       10.420000000000      13.025000000000      11.722500000000
       212    1       10.420000000000      13.025000000000      14.327500000000
       213    1       13.025000000000      14.327500000000      10.420000000000
       214    1       13.025000000000      11.722500000000      10.420000000000
       215    2       10.420000000000      10.420000000000      10.420000000000
       216    2       13.025000000000      13.025000000000      13.025000000000
